LAMMPS data file via write_data, version 16 Mar 2018, timestep = 1093

22490 atoms
1 atom types

0.0000000000000000e+00 4.0000000000000000e+01 xlo xhi
0.0000000000000000e+00 4.0000000000000000e+01 ylo yhi
0.0000000000000000e+00 4.0000000000000000e+01 zlo zhi

Atoms # sphere

6677   1   1.000000000000e+00   1.350481867450e+00   5.834739902911e-01   4.735482272103e-02   6.925054723828e-01
13366   1   1.000000000000e+00   1.350481867450e+00   5.828676965194e+00   5.737540178810e-01   1.083778526021e+00
16235   1   1.000000000000e+00   1.350481867450e+00   6.175798055425e+00   6.379175312062e-01   2.799469831772e-01
5101   1   1.000000000000e+00   1.350481867450e+00   7.884910383301e+00   8.881214460768e-02   6.657144213401e-01
5800   1   1.000000000000e+00   1.350481867450e+00   8.565300052038e+00   5.979746038085e-01   1.591662090082e-01
6758   1   1.000000000000e+00   1.350481867450e+00   9.684662713150e+00   5.262199098832e-01   5.780254070545e-01
6966   1   1.000000000000e+00   1.350481867450e+00   1.083607780330e+01   3.596400127558e-01   4.696943871070e-01
4985   1   1.000000000000e+00   1.350481867450e+00   1.279363011606e+01   1.413605768892e-01   2.472157764468e-01
10156   1   1.000000000000e+00   1.350481867450e+00   1.828514382396e+01   1.224931805034e-02   2.742884720090e-01
16280   1   1.000000000000e+00   1.350481867450e+00   8.231381093446e+00   2.203754485680e-02   1.585016408183e+00
19904   1   1.000000000000e+00   1.350481867450e+00   8.351091299370e-02   3.567914685033e+00   5.942111353363e+00
14951   1   1.000000000000e+00   1.350481867450e+00   2.588096407050e+00   1.336313294590e+00   1.017542168506e+00
14416   1   1.000000000000e+00   1.350481867450e+00   3.674049773009e+00   1.754534955302e+00   8.689937535063e-01
10083   1   1.000000000000e+00   1.350481867450e+00   6.361038807575e+00   1.579238915434e+00   6.684516950829e-01
5147   1   1.000000000000e+00   1.350481867450e+00   1.029682222013e+01   1.491053760839e+00   5.405584241918e-01
119   1   1.000000000000e+00   1.350481867450e+00   1.155562544286e+01   1.396818155980e+00   7.227475578537e-01
4143   1   1.000000000000e+00   1.350481867450e+00   1.500000148574e+01   1.024970813759e+00   1.084466849586e+00
19261   1   1.000000000000e+00   1.350481867450e+00   8.331658136254e-01   3.017829602127e+00   6.621229465409e-01
11566   1   1.000000000000e+00   1.350481867450e+00   1.805448275248e+00   2.169162097559e+00   7.073736727738e-01
12335   1   1.000000000000e+00   1.350481867450e+00   9.228579307454e+00   2.332420378985e+00   1.893096022258e-01
17744   1   1.000000000000e+00   1.350481867450e+00   1.027683809878e+01   2.817926221908e+00   8.860116083575e-01
3595   1   1.000000000000e+00   1.350481867450e+00   1.438501036390e+01   2.469186061280e+00   8.101319396916e-01
17140   1   1.000000000000e+00   1.350481867450e+00   1.519227638607e+01   2.189220760013e+00   2.333135320029e-01
18994   1   1.000000000000e+00   1.350481867450e+00   1.603558894193e+01   2.143346949361e+00   8.321779096649e-01
15026   1   1.000000000000e+00   1.350481867450e+00   1.808740509194e+01   2.217380191114e+00   7.088720604353e-01
16076   1   1.000000000000e+00   1.350481867450e+00   3.388881737175e+00   4.135356698155e+00   5.400258928258e-01
16669   1   1.000000000000e+00   1.350481867450e+00   4.577896059574e+00   3.899073253152e+00   5.241657334027e-01
21140   1   1.000000000000e+00   1.350481867450e+00   1.007043064110e+01   1.372778488962e+01   2.880639900863e+00
17112   1   1.000000000000e+00   1.350481867450e+00   1.410877483054e+01   3.378576965248e+00   5.430549155656e-01
10902   1   1.000000000000e+00   1.350481867450e+00   1.538570408653e+01   3.128582276464e+00   8.823205267463e-01
4107   1   1.000000000000e+00   1.350481867450e+00   1.071301250528e+01   1.176277734906e-03   7.769699890246e+00
13015   1   1.000000000000e+00   1.350481867450e+00   1.823083691924e+01   3.276101731172e+00   2.417958057680e-01
8796   1   1.000000000000e+00   1.350481867450e+00   1.218255651052e+01   4.627272348119e+00   5.663548294298e-01
12371   1   1.000000000000e+00   1.350481867450e+00   1.330427970174e+01   4.228947138800e+00   7.145618081626e-01
9191   1   1.000000000000e+00   1.350481867450e+00   7.686666224006e-01   5.379922686787e+00   1.160596833919e+00
10321   1   1.000000000000e+00   1.350481867450e+00   2.784929378603e+00   5.508066182075e+00   4.683221361918e-01
9188   1   1.000000000000e+00   1.350481867450e+00   3.948047478566e+00   6.033972258230e+00   5.717440670225e-01
17587   1   1.000000000000e+00   1.350481867450e+00   9.032057681229e+00   5.793448415675e+00   4.875222487783e-01
1698   1   1.000000000000e+00   1.350481867450e+00   1.121833148022e+01   5.297188075118e+00   2.399785136059e-01
20515   1   1.000000000000e+00   1.350481867450e+00   1.510086496179e+01   6.237412809971e+00   5.970971744494e-01
667   1   1.000000000000e+00   1.350481867450e+00   1.618754608509e+01   5.687052188668e+00   1.086134942382e+00
4403   1   1.000000000000e+00   1.350481867450e+00   1.597835926617e+01   6.284186589664e+00   3.240124817584e-01
21578   1   1.000000000000e+00   1.350481867450e+00   1.385734491127e+01   1.639592378540e+01   4.291061179941e+00
9425   1   1.000000000000e+00   1.350481867450e+00   1.712558738204e+01   5.747129942825e+00   4.129490540423e-01
 76   1   1.000000000000e+00   1.350481867450e+00   1.921204467714e+01   6.034888758154e+00   7.753582954292e-01
2455   1   1.000000000000e+00   1.350481867450e+00   4.366870126951e+00   7.186223664780e+00   6.113396168740e-02
3293   1   1.000000000000e+00   1.350481867450e+00   8.562695042120e+00   6.815572905548e+00   9.338235404966e-01
9756   1   1.000000000000e+00   1.350481867450e+00   1.485392475317e+01   7.113326519687e+00   7.881638523136e-02
17384   1   1.000000000000e+00   1.350481867450e+00   1.587014990191e+01   7.209401476667e+00   4.106183419985e-01
15663   1   1.000000000000e+00   1.350481867450e+00   1.783135623514e+01   6.804244039955e+00   1.295795191683e-01
11867   1   1.000000000000e+00   1.350481867450e+00   1.978600338883e+01   6.958956073578e+00   7.747286247903e-01
4142   1   1.000000000000e+00   1.350481867450e+00   4.668927704389e+00   8.267927661011e+00   2.601986112353e-01
14584   1   1.000000000000e+00   1.350481867450e+00   1.017516620326e+01   7.618378128772e+00   8.121026841980e-02
3575   1   1.000000000000e+00   1.350481867450e+00   1.081319722757e+01   8.205803829155e+00   9.449566053902e-01
19100   1   1.000000000000e+00   1.350481867450e+00   1.173842512618e+01   7.711095664516e+00   3.848335148696e-01
20797   1   1.000000000000e+00   1.350481867450e+00   1.277791926487e+01   7.689084712457e+00   8.467622718060e-01
19320   1   1.000000000000e+00   1.350481867450e+00   1.461850234886e+01   8.368977227886e+00   6.002690754832e-01
5791   1   1.000000000000e+00   1.350481867450e+00   8.512192272447e+00   3.215523019068e+00   9.538147118659e-02
14468   1   1.000000000000e+00   1.350481867450e+00   1.644586357318e+01   8.029074459443e+00   2.544398647055e-01
21171   1   1.000000000000e+00   1.350481867450e+00   6.535600968048e+00   8.645469979218e+00   5.613940716262e+00
5432   1   1.000000000000e+00   1.350481867450e+00   7.639210696444e+00   8.614175126708e+00   4.413545846200e-01
3517   1   1.000000000000e+00   1.350481867450e+00   8.715109172983e+00   8.839870319907e+00   1.004666695839e-01
773   1   1.000000000000e+00   1.350481867450e+00   1.000784927728e+01   8.722803248336e+00   1.541947828393e-01
332   1   1.000000000000e+00   1.350481867450e+00   1.117472987612e+01   8.885027870296e+00   2.634160656777e-01
10696   1   1.000000000000e+00   1.350481867450e+00   1.261092152559e+01   8.558080553430e+00   5.986150086851e-02
18317   1   1.000000000000e+00   1.350481867450e+00   1.414712926221e+01   9.201510032733e+00   1.379120139209e+00
19176   1   1.000000000000e+00   1.350481867450e+00   1.947384460227e+01   9.306230398503e+00   6.143076439455e-01
12041   1   1.000000000000e+00   1.350481867450e+00   5.414128405514e+00   9.656111477714e+00   6.656059406072e-01
6901   1   1.000000000000e+00   1.350481867450e+00   1.072250695700e+01   9.974426289357e+00   1.826452148997e-01
11185   1   1.000000000000e+00   1.350481867450e+00   1.301553872070e+01   9.759278816245e+00   1.990646324116e-01
17212   1   1.000000000000e+00   1.350481867450e+00   1.585078370806e+01   1.012178142021e+01   3.803293958215e-01
18749   1   1.000000000000e+00   1.350481867450e+00   1.695765843101e+01   1.016524994083e+01   1.557555286939e-01
18646   1   1.000000000000e+00   1.350481867450e+00   1.975722275738e+01   1.044288320897e+01   3.380932060713e-01
7449   1   1.000000000000e+00   1.350481867450e+00   8.810422917647e+00   1.077797688561e+01   6.575165140710e-01
15898   1   1.000000000000e+00   1.350481867450e+00   9.839414205793e+00   1.143455676326e+01   1.955201569924e-01
12869   1   1.000000000000e+00   1.350481867450e+00   1.129794623055e+01   1.098229692103e+01   2.643516700083e-01
8011   1   1.000000000000e+00   1.350481867450e+00   1.537070429380e+01   1.102706583255e+01   2.954477182103e-01
11158   1   1.000000000000e+00   1.350481867450e+00   1.881783284089e+01   1.091655691001e+01   5.719866059590e-01
9651   1   1.000000000000e+00   1.350481867450e+00   1.327708602570e+01   1.998483391664e+01   5.903637004785e+00
18413   1   1.000000000000e+00   1.350481867450e+00   1.597174517623e+00   1.251211768580e+01   3.619452798562e-01
5441   1   1.000000000000e+00   1.350481867450e+00   7.476078529505e+00   1.245184539214e+01   9.655057521376e-01
18068   1   1.000000000000e+00   1.350481867450e+00   1.108477246179e+01   1.177076522660e+01   5.116346816121e-02
15832   1   1.000000000000e+00   1.350481867450e+00   1.218591891787e+01   1.193925268992e+01   2.199594544340e-01
13179   1   1.000000000000e+00   1.350481867450e+00   1.562596891486e+01   1.205955211318e+01   8.923662292270e-01
7813   1   1.000000000000e+00   1.350481867450e+00   2.234057900419e+00   1.341113233464e+01   5.011483544955e-01
20538   1   1.000000000000e+00   1.350481867450e+00   2.989989967546e+00   1.276138455270e+01   5.901772159106e-01
5129   1   1.000000000000e+00   1.350481867450e+00   6.024202583369e+00   1.277281868214e+01   3.635907916183e-01
19571   1   1.000000000000e+00   1.350481867450e+00   8.150344966701e+00   1.324785535030e+01   3.048725648340e-01
4494   1   1.000000000000e+00   1.350481867450e+00   1.060806292268e+01   1.291354146456e+01   2.913948675112e-01
7649   1   1.000000000000e+00   1.350481867450e+00   1.177148869865e+01   1.301055824040e+01   4.523464020585e-01
458   1   1.000000000000e+00   1.350481867450e+00   1.653386068891e+01   1.299659842914e+01   6.297985243750e-01
10514   1   1.000000000000e+00   1.350481867450e+00   1.214147214598e+00   1.377223575011e+01   3.662521770067e-01
20000   1   1.000000000000e+00   1.350481867450e+00   3.937254961923e+00   1.384414504573e+01   1.457835743883e-01
12355   1   1.000000000000e+00   1.350481867450e+00   7.157041836882e+00   1.440215248410e+01   1.768002281789e-01
20204   1   1.000000000000e+00   1.350481867450e+00   8.178386915558e+00   1.414888978663e+01   3.906439432831e-01
2191   1   1.000000000000e+00   1.350481867450e+00   1.127611297866e+01   1.403083236359e+01   1.995347954331e-01
5814   1   1.000000000000e+00   1.350481867450e+00   1.214218895190e+01   1.416971466689e+01   7.944064020153e-01
12089   1   1.000000000000e+00   1.350481867450e+00   1.268572802129e+00   1.570308537432e+01   5.558862191420e-01
13881   1   1.000000000000e+00   1.350481867450e+00   1.158628538325e+00   1.466984362475e+01   6.180119023743e-02
2121   1   1.000000000000e+00   1.350481867450e+00   3.001891298872e+00   1.478706014789e+01   9.199055936746e-01
7319   1   1.000000000000e+00   1.350481867450e+00   1.340110220322e+01   1.992472959195e+01   1.330251828455e+00
13457   1   1.000000000000e+00   1.350481867450e+00   8.610973605426e+00   1.543338638723e+01   9.250101054669e-01
19793   1   1.000000000000e+00   1.350481867450e+00   1.657269447761e+01   1.527608523289e+01   7.645091081804e-01
8185   1   1.000000000000e+00   1.350481867450e+00   1.771032074332e+01   1.496073294336e+01   6.385790532634e-01
11394   1   1.000000000000e+00   1.350481867450e+00   1.894481084177e+01   1.503581755498e+01   5.856465874173e-01
11592   1   1.000000000000e+00   1.350481867450e+00   1.887283679884e+00   1.677680780356e+01   6.087543774437e-01
10221   1   1.000000000000e+00   1.350481867450e+00   3.116572020630e+00   1.582595072315e+01   7.538040411443e-01
8738   1   1.000000000000e+00   1.350481867450e+00   4.643092739695e+00   1.605967605825e+01   1.755109350083e-01
14376   1   1.000000000000e+00   1.350481867450e+00   7.305665130776e+00   1.591385295555e+01   9.266238799908e-01
12124   1   1.000000000000e+00   1.350481867450e+00   8.872431602922e+00   1.655795030229e+01   6.707305373022e-01
19325   1   1.000000000000e+00   1.350481867450e+00   1.188414168166e+01   1.676924369147e+01   6.787226166011e-01
10535   1   1.000000000000e+00   1.350481867450e+00   1.442243655474e+01   1.589117552167e+01   5.869927623249e-01
1943   1   1.000000000000e+00   1.350481867450e+00   1.885948428403e+01   1.615236163016e+01   7.419181080265e-01
10146   1   1.000000000000e+00   1.350481867450e+00   1.794463030116e+01   1.580147158215e+01   9.328811767199e-01
15401   1   1.000000000000e+00   1.350481867450e+00   1.979742211150e+01   1.647342796124e+01   9.037445962912e-01
12510   1   1.000000000000e+00   1.350481867450e+00   2.966252387020e-01   1.778038686438e+01   9.620297156098e-01
4659   1   1.000000000000e+00   1.350481867450e+00   4.080666328818e+00   1.775898844272e+01   9.187567700254e-01
1141   1   1.000000000000e+00   1.350481867450e+00   4.647775536425e+00   1.716344070014e+01   3.478472147825e-01
16689   1   1.000000000000e+00   1.350481867450e+00   1.683873983595e+01   1.990042288923e+01   4.807499242298e+00
4287   1   1.000000000000e+00   1.350481867450e+00   7.850164800347e+00   1.691979943044e+01   2.690274847993e-01
9505   1   1.000000000000e+00   1.350481867450e+00   9.926690964832e+00   1.709504593634e+01   4.370520354421e-01
4826   1   1.000000000000e+00   1.350481867450e+00   1.243063231969e+01   1.763739699891e+01   1.313606326149e-01
18439   1   1.000000000000e+00   1.350481867450e+00   1.452978695851e+01   1.692941172380e+01   2.228419803189e-01
5456   1   1.000000000000e+00   1.350481867450e+00   1.909890683549e+01   1.732718414856e+01   3.839849244729e-01
4542   1   1.000000000000e+00   1.350481867450e+00   2.463791516825e-01   1.849440232855e+01   2.199359410535e-01
20624   1   1.000000000000e+00   1.350481867450e+00   1.558180940691e+00   1.874707018582e+01   4.086130008142e-01
5240   1   1.000000000000e+00   1.350481867450e+00   5.316131655460e+00   1.782473332101e+01   6.929261761219e-01
10956   1   1.000000000000e+00   1.350481867450e+00   4.486387254710e+00   1.831058991920e+01   8.477195486648e-02
7052   1   1.000000000000e+00   1.350481867450e+00   5.430030003018e+00   1.891426071949e+01   3.799124744627e-01
8515   1   1.000000000000e+00   1.350481867450e+00   1.181102723871e+01   1.793480098887e+01   1.000219955668e+00
9295   1   1.000000000000e+00   1.350481867450e+00   1.165022596682e+01   1.854782433815e+01   8.365124225786e-02
11507   1   1.000000000000e+00   1.350481867450e+00   1.421306181616e+01   1.812994417200e+01   1.171698859135e+00
438   1   1.000000000000e+00   1.350481867450e+00   1.770615022923e+01   1.886690269423e+01   4.335819301352e-01
13863   1   1.000000000000e+00   1.350481867450e+00   1.876889744716e+01   1.845939444828e+01   1.042492211537e+00
9139   1   1.000000000000e+00   1.350481867450e+00   7.428540649651e+00   1.948269868218e+01   5.167513209939e-01
12793   1   1.000000000000e+00   1.350481867450e+00   1.169953101329e+01   1.921774028978e+01   9.610503669647e-01
12917   1   1.000000000000e+00   1.350481867450e+00   1.534789143053e+01   1.921127295988e+01   6.646367376971e-01
12354   1   1.000000000000e+00   1.350481867450e+00   1.652908683816e+01   1.916248902137e+01   3.529820943032e-01
9481   1   1.000000000000e+00   1.350481867450e+00   1.866943167665e+01   1.953818953742e+01   7.515554496793e-01
13898   1   1.000000000000e+00   1.350481867450e+00   1.976643158401e+01   1.921563241082e+01   3.339286585031e-01
21301   1   1.000000000000e+00   1.350481867450e+00   1.457822496750e+01   1.622702882449e+01   7.673453282413e+00
21666   1   1.000000000000e+00   1.350481867450e+00   1.828546843086e+01   1.026791741236e+01   3.687949615478e+00
17164   1   1.000000000000e+00   1.350481867450e+00   3.447171519346e+00   1.011725650733e+00   1.673011873045e+00
241   1   1.000000000000e+00   1.350481867450e+00   5.976923924488e+00   5.603988616543e-01   2.223667823627e+00
4405   1   1.000000000000e+00   1.350481867450e+00   6.936414450098e+00   3.176627974574e-01   1.358636866211e+00
21387   1   1.000000000000e+00   1.350481867450e+00   2.032573428951e+00   1.461620387371e+00   5.453850536353e+00
5075   1   1.000000000000e+00   1.350481867450e+00   8.940671635764e+00   6.681822860931e-01   1.339682366671e+00
3506   1   1.000000000000e+00   1.350481867450e+00   9.862793876632e+00   7.766845621991e-01   1.737436880887e+00
8638   1   1.000000000000e+00   1.350481867450e+00   1.151580892108e+01   1.000536622759e+00   2.019018713953e+00
13060   1   1.000000000000e+00   1.350481867450e+00   1.073541082839e+01   8.497927957446e-01   1.267518079964e+00
214   1   1.000000000000e+00   1.350481867450e+00   1.175830660451e+01   2.591020205333e-01   1.127659103799e+00
3417   1   1.000000000000e+00   1.350481867450e+00   1.257295359335e+01   8.310433629113e-01   1.345800450978e+00
4855   1   1.000000000000e+00   1.350481867450e+00   1.380568436859e+01   9.371829661248e-01   1.634111659803e+00
3016   1   1.000000000000e+00   1.350481867450e+00   1.483392515948e+01   5.801553399210e-01   1.870798051670e+00
11979   1   1.000000000000e+00   1.350481867450e+00   1.712003354426e+01   4.037784576434e-01   1.904537611969e+00
3198   1   1.000000000000e+00   1.350481867450e+00   5.667159696420e+00   1.553017735366e+00   1.569078300600e+00
9021   1   1.000000000000e+00   1.350481867450e+00   6.678867180310e+00   1.320699464493e+00   1.795899730919e+00
18219   1   1.000000000000e+00   1.350481867450e+00   7.734711720764e+00   2.099890881171e+00   1.666039847706e+00
6224   1   1.000000000000e+00   1.350481867450e+00   1.425947558771e+01   2.206202618967e+00   2.047416976768e+00
17703   1   1.000000000000e+00   1.350481867450e+00   1.516442008408e+01   2.008353131268e+00   1.191077226955e+00
18828   1   1.000000000000e+00   1.350481867450e+00   1.591918732678e+01   1.381401272109e+00   2.011180343205e+00
10901   1   1.000000000000e+00   1.350481867450e+00   1.765399902661e+01   1.961640242935e+00   1.687563008390e+00
16095   1   1.000000000000e+00   1.350481867450e+00   5.883348538486e-01   2.143888633393e+00   2.336261431098e+00
9072   1   1.000000000000e+00   1.350481867450e+00   2.753305474181e+00   2.405104565716e+00   1.392435987663e+00
10503   1   1.000000000000e+00   1.350481867450e+00   6.897118789003e+00   2.275486770401e+00   1.306150121850e+00
18971   1   1.000000000000e+00   1.350481867450e+00   7.896478181470e+00   2.908795973150e+00   1.333920739281e+00
7968   1   1.000000000000e+00   1.350481867450e+00   2.032969674949e+00   3.721326868758e+00   2.340683219461e+00
10245   1   1.000000000000e+00   1.350481867450e+00   8.287788248382e+00   3.657090563167e+00   1.121095154398e+00
3621   1   1.000000000000e+00   1.350481867450e+00   9.177537056048e+00   3.265301001847e+00   1.513938049187e+00
6263   1   1.000000000000e+00   1.350481867450e+00   1.010720389136e+01   3.775802162930e+00   1.506952369170e+00
7789   1   1.000000000000e+00   1.350481867450e+00   1.363237645395e+01   3.351061494812e+00   1.690543304147e+00
20537   1   1.000000000000e+00   1.350481867450e+00   1.799000203060e+01   3.964128213638e+00   1.902886622261e+00
944   1   1.000000000000e+00   1.350481867450e+00   4.646477375481e-01   4.934524970192e+00   2.161174013168e+00
6381   1   1.000000000000e+00   1.350481867450e+00   8.945279163004e+00   4.506892600892e+00   1.343943185054e+00
14029   1   1.000000000000e+00   1.350481867450e+00   9.672833405842e+00   4.911051978595e+00   2.050604248070e+00
11400   1   1.000000000000e+00   1.350481867450e+00   1.591652891464e+01   4.701468416630e+00   1.179678301131e+00
4976   1   1.000000000000e+00   1.350481867450e+00   1.703349155077e+01   5.092493859908e+00   1.544303471103e+00
18803   1   1.000000000000e+00   1.350481867450e+00   1.877676373663e+00   5.706812157532e+00   1.591931634393e+00
20749   1   1.000000000000e+00   1.350481867450e+00   2.974327065225e+00   5.514985235089e+00   1.556846140212e+00
19447   1   1.000000000000e+00   1.350481867450e+00   4.236334537452e+00   5.674570959841e+00   1.714122050495e+00
11211   1   1.000000000000e+00   1.350481867450e+00   5.958106565922e+00   5.897053444617e+00   2.177243677702e+00
7761   1   1.000000000000e+00   1.350481867450e+00   6.841811466516e+00   5.525317732862e+00   1.615136209603e+00
6727   1   1.000000000000e+00   1.350481867450e+00   1.098199538197e+01   5.996384690793e+00   1.237498164846e+00
11023   1   1.000000000000e+00   1.350481867450e+00   1.454881132299e+01   6.271905418891e+00   1.914375308023e+00
13166   1   1.000000000000e+00   1.350481867450e+00   1.574745092660e+01   5.407723299697e+00   2.005498006011e+00
17404   1   1.000000000000e+00   1.350481867450e+00   2.906577914258e+00   6.455004930894e+00   1.267873541484e+00
3604   1   1.000000000000e+00   1.350481867450e+00   8.625819892541e+00   6.954933943672e+00   1.974791288737e+00
20035   1   1.000000000000e+00   1.350481867450e+00   1.175024875056e+01   6.430750585362e+00   1.625088174653e+00
12848   1   1.000000000000e+00   1.350481867450e+00   1.945333898079e+01   6.668250183141e+00   1.680828050375e+00
18191   1   1.000000000000e+00   1.350481867450e+00   2.343794278588e+00   8.150440229359e+00   2.048934841551e+00
9137   1   1.000000000000e+00   1.350481867450e+00   3.457846099351e+00   7.619391800007e+00   1.917982710394e+00
9235   1   1.000000000000e+00   1.350481867450e+00   6.596789906172e+00   7.847953040361e+00   1.746749353757e+00
19390   1   1.000000000000e+00   1.350481867450e+00   7.656963872005e+00   7.791796783820e+00   1.928545657698e+00
13542   1   1.000000000000e+00   1.350481867450e+00   1.509920129082e+01   8.276094833331e+00   1.125863797928e+00
19244   1   1.000000000000e+00   1.350481867450e+00   1.264074764524e+00   9.304567349658e+00   1.463445696637e+00
12284   1   1.000000000000e+00   1.350481867450e+00   4.757758830934e+00   9.252671503021e+00   1.249951269967e+00
4818   1   1.000000000000e+00   1.350481867450e+00   7.120063468777e+00   9.306719729540e+00   1.238494383375e+00
8150   1   1.000000000000e+00   1.350481867450e+00   1.042836433827e+01   9.119433360230e+00   1.116485384161e+00
13160   1   1.000000000000e+00   1.350481867450e+00   1.531267486509e+01   9.326457499492e+00   1.371193965325e+00
6002   1   1.000000000000e+00   1.350481867450e+00   1.905957830793e+01   9.132621413904e+00   1.968103477810e+00
10337   1   1.000000000000e+00   1.350481867450e+00   8.567553152595e-01   9.886583565588e+00   2.209986843918e+00
15895   1   1.000000000000e+00   1.350481867450e+00   2.019389204597e+00   1.027436165869e+01   1.196397598366e+00
12418   1   1.000000000000e+00   1.350481867450e+00   6.905654948720e+00   1.014272313059e+01   1.947655899146e+00
8709   1   1.000000000000e+00   1.350481867450e+00   8.219757145187e+00   9.858339154096e+00   1.106162883856e+00
14052   1   1.000000000000e+00   1.350481867450e+00   1.009070440405e+01   9.668918803739e+00   1.918334438986e+00
11992   1   1.000000000000e+00   1.350481867450e+00   1.215478920990e+01   1.034225084956e+01   2.210028539603e+00
4103   1   1.000000000000e+00   1.350481867450e+00   1.269530894155e+01   9.657380697344e+00   1.597380262985e+00
17975   1   1.000000000000e+00   1.350481867450e+00   1.760685325591e+01   9.982672115128e+00   1.170238954094e+00
8992   1   1.000000000000e+00   1.350481867450e+00   1.893732874577e+01   1.008423012434e+01   1.255699743822e+00
3989   1   1.000000000000e+00   1.350481867450e+00   1.819264834122e+01   1.024067095008e+01   2.156657957359e+00
11468   1   1.000000000000e+00   1.350481867450e+00   3.000279409345e-01   1.136960328676e+01   1.722440617961e+00
9409   1   1.000000000000e+00   1.350481867450e+00   1.336751111009e+00   1.077592272115e+01   1.733174326053e+00
20045   1   1.000000000000e+00   1.350481867450e+00   2.628497614445e+00   1.115940598378e+01   1.336369378742e+00
18861   1   1.000000000000e+00   1.350481867450e+00   3.763179556170e+00   1.095880055081e+01   2.160857470967e+00
18106   1   1.000000000000e+00   1.350481867450e+00   3.799436544440e+00   1.153000241021e+01   1.150508426386e+00
20739   1   1.000000000000e+00   1.350481867450e+00   9.657724725296e+00   1.097945804418e+01   1.351348539885e+00
18829   1   1.000000000000e+00   1.350481867450e+00   1.083433653332e+01   1.149411551417e+01   1.999446584191e+00
20166   1   1.000000000000e+00   1.350481867450e+00   1.982989234553e+01   1.100065135285e+01   1.547287398459e+00
8913   1   1.000000000000e+00   1.350481867450e+00   1.491015655124e+00   1.190011567078e+01   1.644078733048e+00
3248   1   1.000000000000e+00   1.350481867450e+00   2.392750106283e+00   1.215103629639e+01   1.267033419137e+00
17215   1   1.000000000000e+00   1.350481867450e+00   3.629301689858e+00   1.247350144716e+01   1.338822363847e+00
1010   1   1.000000000000e+00   1.350481867450e+00   6.219557829117e+00   1.210843397272e+01   1.249779540696e+00
8528   1   1.000000000000e+00   1.350481867450e+00   1.591818922801e+01   1.260635514036e+01   1.810844050167e+00
5501   1   1.000000000000e+00   1.350481867450e+00   1.742545428845e+00   1.296102260387e+01   1.506903179040e+00
19954   1   1.000000000000e+00   1.350481867450e+00   4.613341110392e+00   1.282404236115e+01   1.679963809755e+00
7411   1   1.000000000000e+00   1.350481867450e+00   6.784761304494e+00   1.308324463651e+01   1.692605779084e+00
15547   1   1.000000000000e+00   1.350481867450e+00   7.754432589446e+00   1.354853082558e+01   1.357585456854e+00
11515   1   1.000000000000e+00   1.350481867450e+00   1.162011543662e+01   1.288014332153e+01   1.768804939542e+00
10328   1   1.000000000000e+00   1.350481867450e+00   1.256750776701e+01   1.330304014129e+01   1.395654623115e+00
14947   1   1.000000000000e+00   1.350481867450e+00   1.482286005794e+01   1.300899383184e+01   2.159331732783e+00
14535   1   1.000000000000e+00   1.350481867450e+00   1.545582279249e+01   1.321367336261e+01   1.008205351237e+00
11337   1   1.000000000000e+00   1.350481867450e+00   1.831380370488e+01   1.249886793527e+01   2.073388043918e+00
12301   1   1.000000000000e+00   1.350481867450e+00   8.796055133825e-01   1.392986342000e+01   1.614499990928e+00
874   1   1.000000000000e+00   1.350481867450e+00   1.724579959048e-02   1.465015371724e+01   1.933525580975e+00
3225   1   1.000000000000e+00   1.350481867450e+00   1.979433859596e+00   1.434487822603e+01   1.168344840858e+00
3655   1   1.000000000000e+00   1.350481867450e+00   3.828135795439e+00   1.427831393866e+01   1.222367023315e+00
18532   1   1.000000000000e+00   1.350481867450e+00   6.097483796765e+00   1.441017222694e+01   1.764618124051e+00
7880   1   1.000000000000e+00   1.350481867450e+00   7.347544284234e+00   1.417678511430e+01   2.027416100552e+00
16345   1   1.000000000000e+00   1.350481867450e+00   1.290701311468e+01   1.456941850631e+01   1.416835553021e+00
20416   1   1.000000000000e+00   1.350481867450e+00   1.863684192041e+01   1.460215629526e+01   1.240854364746e+00
9464   1   1.000000000000e+00   1.350481867450e+00   1.018488956810e+00   1.494389710908e+01   1.278712308537e+00
15013   1   1.000000000000e+00   1.350481867450e+00   2.750842893846e-01   1.574165168663e+01   1.539897128632e+00
11525   1   1.000000000000e+00   1.350481867450e+00   2.083504007423e+00   1.545185275946e+01   1.289328305465e+00
1454   1   1.000000000000e+00   1.350481867450e+00   3.052402873827e+00   1.533510041597e+01   1.832691219744e+00
7071   1   1.000000000000e+00   1.350481867450e+00   4.119035965167e+00   1.543746655399e+01   1.100372886704e+00
17567   1   1.000000000000e+00   1.350481867450e+00   7.667071626460e+00   1.487282590897e+01   1.185052129340e+00
5503   1   1.000000000000e+00   1.350481867450e+00   9.313985857607e+00   1.496030879848e+01   1.909976006257e+00
17572   1   1.000000000000e+00   1.350481867450e+00   1.380300484700e+01   1.550246357410e+01   1.505289954089e+00
18644   1   1.000000000000e+00   1.350481867450e+00   1.706998095711e+01   1.516994618586e+01   1.285545714798e+00
13764   1   1.000000000000e+00   1.350481867450e+00   1.386908074183e+00   1.616400279168e+01   1.594919803736e+00
2035   1   1.000000000000e+00   1.350481867450e+00   5.716427781115e+00   1.680171719231e+01   2.060851119114e+00
16900   1   1.000000000000e+00   1.350481867450e+00   6.475533933414e+00   1.589881888791e+01   1.849049092014e+00
18720   1   1.000000000000e+00   1.350481867450e+00   1.218558878553e+01   1.599071846325e+01   2.005211761783e+00
19816   1   1.000000000000e+00   1.350481867450e+00   1.845255142509e+01   1.643180143034e+01   1.286639674607e+00
20020   1   1.000000000000e+00   1.350481867450e+00   3.143759025048e+00   1.755793398766e+01   1.796530559751e+00
1489   1   1.000000000000e+00   1.350481867450e+00   5.146893473317e+00   1.783860604439e+01   1.851788040182e+00
10699   1   1.000000000000e+00   1.350481867450e+00   6.389811236127e+00   1.755744558971e+01   1.988026299043e+00
7250   1   1.000000000000e+00   1.350481867450e+00   1.036305436360e+01   1.785468900178e+01   2.158052968866e+00
15512   1   1.000000000000e+00   1.350481867450e+00   1.071618084047e+01   1.725138574767e+01   1.240261009913e+00